LAMMPS data file via write_data, version 23 Jun 2022, timestep = 84

33217 atoms
2 atom types

0 119.94 xlo xhi
0 119.94 ylo yhi
0 125.577 zlo zhi

Masses

1 26.982
2 47.867

Atoms # atomic

155 1 50.01016209707136 41.96286328121325 16.94358252234399 0 0 0
158 1 52.01716461270699 39.95644588761784 16.98932354806443 0 0 0
159 1 53.97940149483611 41.97117146074915 16.89411742074983 0 0 0
162 1 55.97755662677128 39.96644085441211 16.95451940505978 0 0 0
163 1 57.9801965783505 41.96019146458655 16.86351455608679 0 0 0
166 1 59.97000023353147 39.97874880426191 16.943753575397977 0 0 0
167 1 61.95980586841238 41.960193891194265 16.86351421058753 0 0 0
170 1 63.962448012882355 39.96643443733287 16.954511104704444 0 0 0
171 1 65.96059893719458 41.97116980909852 16.894111905777542 0 0 0
174 1 67.92283488765608 39.95644656516336 16.989327048614804 0 0 0
175 1 69.92984155913308 41.962861057049324 16.943576318682787 0 0 0
218 1 41.962858829430225 50.01016112141427 16.943571973747108 0 0 0
261 1 39.95644603501267 52.017166450110786 16.989322950088887 0 0 0
1 2 51.99569802064229 45.959931967831196 14.837999652917555 0 0 0
8 2 47.95530482366095 49.97536035319513 14.801400937071161 0 0 0
9 2 49.975361456253815 47.955302574055985 14.801401432420636 0 0 0
10 2 51.95746519851854 49.9521156915719 14.714220017649312 0 0 0
21 2 45.95993443652429 51.99570260838846 14.838001670673403 0 0 0
23 2 49.9521195487252 51.95746470772377 14.714220403341585 0 0 0
183 1 45.99160040906363 45.99160356604924 16.92363287782278 0 0 0
186 1 48.00278215151929 43.98113790634394 16.926659513682452 0 0 0
187 1 49.948523092269554 45.94910428845018 16.826603156465506 0 0 0
190 1 51.97405863100695 43.944900015767864 16.845027318138346 0 0 0
221 1 43.98114260179061 48.00277876370874 16.92666887227458 0 0 0
222 1 45.94910312673795 49.948520246687075 16.82660850390248 0 0 0
225 1 47.951669599301574 47.9516710915713 16.817754606166176 0 0 0
226 1 49.98541594290843 49.985419251408544 16.809364201645746 0 0 0
229 1 51.984737487459434 47.99371629176384 16.823187412844106 0 0 0
265 1 43.944910450877494 51.97406177708507 16.84502839845111 0 0 0
269 1 47.99370772028637 51.984732753260225 16.823180287646792 0 0 0
273 1 51.968969573427565 51.9689737937687 16.766918727276547 0 0 0
2 2 55.953903160942055 45.924643818342176 14.774473791947987 0 0 0
3 2 58.008829505137435 43.952290495560725 14.837648408195117 0 0 0
4 2 59.97000090190345 45.95361600121213 14.754295041609291 0 0 0
11 2 53.96554948077238 47.956978660033734 14.740483326511022 0 0 0
12 2 55.96991458602453 49.95587723075648 14.688654586526123 0 0 0
13 2 57.9550783828055 47.93124796248007 14.71106643047572 0 0 0
14 2 59.969998690461 49.93026657328527 14.699574800910108 0 0 0
26 2 53.968082362404125 51.94871684867231 14.699360008285527 0 0 0
29 2 57.95147353748313 51.94969872340924 14.71253481653724 0 0 0
30 1 59.970001512996646 51.97823101092078 12.788572250083169 0 0 0
191 1 53.98921557419026 45.96540663424293 16.828662247348362 0 0 0
194 1 55.95284930117911 43.94949015784704 16.823411240521125 0 0 0
195 1 57.974292891122175 45.98757147192961 16.822327056213 0 0 0
198 1 59.97000282717232 43.97007067922133 16.85717988033371 0 0 0
230 1 53.96994017241061 49.96217491704124 16.782024632064143 0 0 0
233 1 55.97354131885648 47.97334271930792 16.79037673742397 0 0 0
234 1 57.970754949501384 49.95055219828254 16.767596140651523 0 0 0
237 1 59.970004217834806 47.95824989633603 16.788294996210677 0 0 0
277 1 55.95761692827866 51.95292811368418 16.77153603920024 0 0 0
281 1 59.97000306602188 51.94925954132443 16.7502951605242 0 0 0
5 2 61.93117467331409 43.95229290820519 14.837646220186393 0 0 0
6 2 63.9860917580759 45.92463964689218 14.774476718449442 0 0 0
7 2 67.9442985351868 45.959930597864904 14.838002072973286 0 0 0
15 2 61.98491950520805 47.9312438845279 14.711067266744791 0 0 0
16 2 63.970091001678455 49.95587143649832 14.688652447086717 0 0 0
17 2 65.97444798012793 47.95697961507328 14.740481733013352 0 0 0
18 2 67.9825250688397 49.952120778559355 14.714218285030272 0 0 0
33 2 61.98852134411464 51.94970846739997 14.712536106547407 0 0 0
36 2 65.97192134314106 51.94872394165187 14.69935493584667 0 0 0
199 1 61.965706566816955 45.98757390477336 16.822324765759568 0 0 0
202 1 63.987148695250944 43.949493162219014 16.82341482052686 0 0 0
203 1 65.95078333080609 45.96540223387492 16.82866789027628 0 0 0
206 1 67.96594018918364 43.94490849779628 16.845032472885503 0 0 0
238 1 61.969248465642664 49.95054843135082 16.767601468825724 0 0 0
241 1 63.96646875970833 47.97334287803463 16.79037211698988 0 0 0
242 1 65.97005511157565 49.9621694311789 16.782028401783524 0 0 0
245 1 67.95526443564374 47.993709995769976 16.823189442337885 0 0 0
285 1 63.982377851186506 51.9529332968914 16.771538251297475 0 0 0
289 1 67.9710332771567 51.968968067639786 16.76691583802979 0 0 0
19 2 69.96464581917586 47.95530374508397 14.801405084112018 0 0 0
20 2 71.98469465729552 49.97535515926015 14.801401710573154 0 0 0
38 2 69.98787821313289 51.95745977417099 14.714220737080678 0 0 0
40 2 73.98006153653411 51.995701199676226 14.837999758735709 0 0 0
207 1 69.99147607641811 45.949107141401484 16.8266074822996 0 0 0
210 1 71.93721607540712 43.981132092959676 16.926668401073414 0 0 0
211 1 73.94840459455916 45.991598848915764 16.92363118547968 0 0 0
246 1 69.95458261774348 49.98542234903137 16.809374506850443 0 0 0
249 1 71.98832676397525 47.951673281870576 16.817751834606693 0 0 0
250 1 73.99089172152367 49.948518045273495 16.82660409733252 0 0 0
253 1 75.95885658572222 48.00278172157824 16.92665730792339 0 0 0
254 1 77.97713937601647 50.01015818779005 16.94356706268539 0 0 0
293 1 71.94628989084718 51.98473821702846 16.823183127732378 0 0 0
297 1 75.99510034205915 51.97405853922017 16.84502908449508 0 0 0
301 1 79.98355029807685 52.01716582053644 16.98932992814995 0 0 0
262 1 41.97116882359167 53.97940147709518 16.89411477901285 0 0 0
307 1 39.9664384337576 55.97755268830775 16.954517914814826 0 0 0
308 1 41.96019156495997 57.98019398514685 16.863514487471857 0 0 0
353 1 39.9787466687542 59.969999008795405 16.94375005773947 0 0 0
22 2 47.95697218701869 53.96555143251966 14.740484815641544 0 0 0
25 2 51.94871353229988 53.968080010492436 14.699359435799506 0 0 0
41 2 43.95229031934164 58.00882334891705 14.837645976849844 0 0 0
42 2 45.924639987971375 55.95390355998756 14.77446966674229 0 0 0
43 2 47.93125102189836 57.95508336394629 14.711063925564925 0 0 0
44 2 49.95587513022929 55.96991170305162 14.688650239646954 0 0 0
46 2 51.94970401152295 57.95147138681798 14.712535647159942 0 0 0
66 2 45.95362116827651 59.9699990561241 14.75429515718073 0 0 0
68 2 49.930257645815935 59.96999644903101 14.69957908242465 0 0 0
69 1 51.97823505891759 59.970003744241325 12.788568300126414 0 0 0
266 1 45.965413152456065 53.989214621769875 16.828660854555828 0 0 0
270 1 49.9621820490315 53.96994292891102 16.782024299189 0 0 0
311 1 43.94948590394833 55.95285207157529 16.823414274394665 0 0 0
312 1 45.987575547847804 57.97429361482938 16.822333464821565 0 0 0
315 1 47.97333903248139 55.9735372772795 16.790380402125585 0 0 0
316 1 49.95055302682521 57.970754312758054 16.767604231782293 0 0 0
319 1 51.95292961161843 55.9576245356103 16.77153708034292 0 0 0
357 1 43.97006832733673 59.97000488904891 16.85718546194387 0 0 0
361 1 47.95825335653356 59.970001829135306 16.78828805930794 0 0 0
365 1 51.94925944555874 59.970000765853364 16.750296995021994 0 0 0
24 1 53.99806355488833 53.99806252014177 12.795175962644803 0 0 0
27 1 57.95339035514785 53.96236993442389 12.742475476440045 0 0 0
28 2 55.97792890014802 53.961517207366704 14.73655364503014 0 0 0
32 2 59.970003939716825 53.97357158079998 14.73265318434325 0 0 0
45 1 53.96237052876176 57.95339186511267 12.74247875628174 0 0 0
47 2 53.961520749028985 55.97793360340803 14.736560184196424 0 0 0
48 1 55.97790633388501 55.977904422339805 12.73616433915677 0 0 0
49 1 57.96162696729345 57.96162685163474 12.688437519115094 0 0 0
50 2 55.973414282261714 57.97568496080568 14.72120423907785 0 0 0
51 2 57.975682421599565 55.973425187101455 14.721204785745835 0 0 0
52 1 59.97000025459522 55.93686975950485 12.695766933328422 0 0 0
54 2 59.97000299629586 57.9684956523803 14.697350391072519 0 0 0
72 2 53.97357148467767 59.96999478855823 14.73264999288296 0 0 0
73 1 55.93686798477714 59.96999860676273 12.695767822330273 0 0 0
76 2 57.96849286778567 59.969998569060365 14.697349186455234 0 0 0
77 1 59.970001428247656 59.969997740468536 12.680121446824204 0 0 0
274 1 53.95573000203008 53.95573305979324 16.76313258241466 0 0 0
278 1 57.97428923018302 53.95604906801998 16.769698636997536 0 0 0
320 1 53.9560472667424 57.97429149357757 16.769700724810555 0 0 0
323 1 55.96361530590876 55.96361418077239 16.763040243495986 0 0 0
324 1 57.97304482503065 57.973047138515064 16.770423166784493 0 0 0
327 1 59.96999447661175 55.97226319327751 16.774967855262094 0 0 0
369 1 55.97226056389779 59.9700040029303 16.774967101353305 0 0 0
373 1 59.96999792699348 59.97000232348627 16.763595833869132 0 0 0
31 1 61.98661042967712 53.96237131413027 12.74247994149767 0 0 0
34 1 65.94194069827476 53.998059016194915 12.795180763964321 0 0 0
35 2 63.962062362992654 53.961517865054915 14.736561874497669 0 0 0
37 2 67.99128511568935 53.96807951672625 14.699353742940605 0 0 0
53 1 61.97836777526183 57.961626930791674 12.688439618068527 0 0 0
55 2 61.9643164107974 55.97340841259569 14.72120753561587 0 0 0
56 1 63.962099983218636 55.97790678694185 12.736162883032895 0 0 0
57 1 65.97762723458304 57.9533865593599 12.742477718671237 0 0 0
58 2 63.96657977985117 57.97568432427289 14.721204805252649 0 0 0
59 2 65.97848134971684 55.97793754810269 14.736557080822562 0 0 0
60 2 67.99029486801177 57.951474540150336 14.712536408349052 0 0 0
80 2 61.97150541899161 59.9700004574995 14.697348107705219 0 0 0
81 1 64.00313140966168 59.97000147090055 12.695767370620016 0 0 0
84 2 65.96642582608277 59.96999855998233 14.732645566489477 0 0 0
85 1 67.96176503520213 59.97000127640073 12.78857173080379 0 0 0
282 1 61.96570754090544 53.95604882499766 16.769692669616095 0 0 0
286 1 65.98426076708134 53.95573441950143 16.76312964845177 0 0 0
328 1 61.9669514913705 57.97304624391215 16.77042471728978 0 0 0
331 1 63.97638485868704 55.9636151780178 16.763040948145076 0 0 0
332 1 65.98395439341549 57.97429370836126 16.769703342084835 0 0 0
335 1 67.98706578941265 55.95761882703315 16.771532477094677 0 0 0
377 1 63.967739768771494 59.97000435937051 16.774965714924704 0 0 0
381 1 67.99073997969275 59.96999571347518 16.750299737155927 0 0 0
39 2 71.98303088798387 53.965552588106085 14.740485955709005 0 0 0
61 2 69.98412828668633 55.969912020512304 14.688651244199932 0 0 0
62 2 72.00875103380909 57.9550813105123 14.711063259103039 0 0 0
63 2 74.01535052680781 55.95390292973184 14.774475812440919 0 0 0
64 2 75.98770983792814 58.00882321645073 14.83764764207463 0 0 0
87 2 70.00974098962763 59.969998713558006 14.69957170877424 0 0 0
89 2 73.98637564990618 59.970004692688065 14.754294393144663 0 0 0
290 1 69.97782420565889 53.969940964270165 16.78203145866214 0 0 0
294 1 73.97458769696257 53.98921810492104 16.828656782384027 0 0 0
298 1 77.96883727501418 53.97940357115836 16.894115546650585 0 0 0
336 1 69.98944619914747 57.970751301933106 16.767603539571216 0 0 0
339 1 71.96666128655883 55.97353409711131 16.790378998887103 0 0 0
340 1 73.95242505393593 57.974289090469334 16.82233004410091 0 0 0
343 1 75.99051412154797 55.952854641233806 16.823411556005176 0 0 0
344 1 77.97981351818873 57.980196809901045 16.863514266963552 0 0 0
385 1 71.98174644911585 59.96999936054493 16.788287710487197 0 0 0
389 1 75.96993396981333 59.970004825361116 16.857180650228358 0 0 0
347 1 79.97356495907825 55.977553916652894 16.95451593674894 0 0 0
393 1 79.96125062336851 59.96999892459298 16.943745895069632 0 0 0
354 1 41.96019942951094 61.95980940982776 16.863517095769602 0 0 0
399 1 39.966438252418016 63.96244480289911 16.954517159010315 0 0 0
400 1 41.97117384200197 65.96059916052764 16.8941169184624 0 0 0
444 1 39.95644843363844 67.92282881844714 16.98932329589867 0 0 0
65 2 43.95228801525602 61.93117978894609 14.837649441488598 0 0 0
67 2 47.93124415231806 61.984919106952916 14.711065706205256 0 0 0
71 2 51.949705336050776 61.98852164190535 14.71253428158965 0 0 0
91 2 45.92464451603657 63.98609466943371 14.77447103358507 0 0 0
92 2 47.95698135960749 65.9744435888394 14.740486993306535 0 0 0
93 2 49.95587312796022 63.970092068446064 14.688647018325689 0 0 0
95 2 51.94870577820702 65.97192929819123 14.699355544852985 0 0 0
113 2 45.9599311621643 67.94430835547627 14.838001281778583 0 0 0
115 2 49.95211825751437 67.98252862539417 14.714222302716022 0 0 0
358 1 45.987578327786984 61.965703385860074 16.822335039008713 0 0 0
362 1 49.95054610050437 61.969246260941134 16.767601822083762 0 0 0
403 1 43.949486015910004 63.98714115752433 16.823412550614858 0 0 0
404 1 45.96540880435512 65.9507818180659 16.828664920421687 0 0 0
407 1 47.97333754364383 63.9664625395736 16.790376557776085 0 0 0
408 1 49.962178293766804 65.97005753659529 16.78201954375147 0 0 0
411 1 51.952932946734286 63.982377503626374 16.77154238512935 0 0 0
448 1 43.94490881833425 67.96593726883513 16.845029663528116 0 0 0
452 1 47.99371331394228 67.95526655844161 16.823178993469654 0 0 0
456 1 51.968966007263845 67.97103708857432 16.766912441461987 0 0 0
70 1 53.96237707585322 61.98661355638532 12.742480417885664 0 0 0
74 1 57.961624128716316 61.97837566471042 12.688439744769626 0 0 0
75 2 55.973418125558496 61.964321528264236 14.721203173085039 0 0 0
79 2 59.97000019823954 61.97150393953194 14.697351959752949 0 0 0
94 1 53.99806655868472 65.94193686958883 12.795174089673084 0 0 0
96 2 53.96152381728178 63.96205774931659 14.736558741319634 0 0 0
97 1 55.97790650295704 63.96209336099724 12.736168714984368 0 0 0
98 1 57.95338941750833 65.97762832806272 12.742480094600014 0 0 0
99 2 55.97793157135257 65.97847406163898 14.736550226528227 0 0 0
100 2 57.97567257516481 63.96658296212494 14.721206149207772 0 0 0
101 1 59.96999968843443 64.00313151299814 12.695764948268177 0 0 0
103 2 59.97000324268591 65.96643208841003 14.732652434981476 0 0 0
117 2 53.96808057626833 67.9912802653455 14.699356729986265 0 0 0
119 2 57.951475382314364 67.99029449091894 14.712529714544043 0 0 0
120 1 59.96999959330688 67.96176876828937 12.788570949597156 0 0 0
366 1 53.95604658483456 61.965711280980884 16.769698010748943 0 0 0
370 1 57.97304944643443 61.96695493885845 16.770419765952127 0 0 0
412 1 53.9557370218534 65.98426433776764 16.76314142574081 0 0 0
415 1 55.96361065387094 63.97638784731956 16.763036021508793 0 0 0
416 1 57.9742972925203 65.9839508530556 16.769701616031497 0 0 0
419 1 59.96999952005389 63.96773870078063 16.77496402286763 0 0 0
460 1 55.95762001842106 67.98707344440112 16.771543852196995 0 0 0
464 1 59.9699992615912 67.99074563934292 16.750300884796705 0 0 0
78 1 61.978375819287564 61.97837096149417 12.688443890865209 0 0 0
82 1 65.97763195270049 61.98660805215161 12.742480473767102 0 0 0
83 2 63.96657847197265 61.964316621014575 14.72120575300478 0 0 0
86 2 67.99029814248995 61.988525802247786 14.712529704433397 0 0 0
102 1 61.98661307738513 65.97762811220478 12.742479783642045 0 0 0
104 2 61.96431993888311 63.96657952217613 14.721204697063953 0 0 0
105 1 63.962091552325845 63.96209634563491 12.736171574818787 0 0 0
106 1 65.94193532699104 65.94193785712835 12.79517669498659 0 0 0
107 2 63.962067897601436 65.97848214168944 14.736548786021876 0 0 0
108 2 65.97847780196149 63.9620645409772 14.736559722463648 0 0 0
109 2 67.99128224962821 65.9719212207385 14.699357746189797 0 0 0
122 2 61.98852425725151 67.99029303900332 14.712532015382 0 0 0
124 2 65.97191766944331 67.99128002374347 14.699359468274995 0 0 0
374 1 61.96695698013079 61.96695789108525 16.770419224923288 0 0 0
378 1 65.9839512587797 61.96571084129919 16.76969913037231 0 0 0
420 1 61.965705576761366 65.98394946536624 16.769702148183907 0 0 0
423 1 63.976386243378656 63.97637781154617 16.763041754654594 0 0 0
424 1 65.98426407069418 65.98426533584852 16.76312671264286 0 0 0
427 1 67.98707368181964 63.98238678498734 16.771549185017694 0 0 0
468 1 63.982383107920576 67.98707398138058 16.771540271665465 0 0 0
472 1 67.9710353458949 67.97103654012592 16.766910564082696 0 0 0
88 2 72.00876355446779 61.98491819089493 14.711063746328085 0 0 0
90 2 75.98771153208763 61.93117614221691 14.837648547426484 0 0 0
110 2 69.98412557494233 63.97009067543696 14.688647329987555 0 0 0
111 2 71.98302893688435 65.97445020966539 14.740485701203868 0 0 0
112 2 74.01535592541487 63.98609255677031 14.774474315634976 0 0 0
126 2 69.98788256162793 67.9825375142819 14.714224212023181 0 0 0
128 2 73.9800658131487 67.94430238269105 14.837996706302347 0 0 0
382 1 69.98944385723158 61.969246225503575 16.767605550517146 0 0 0
386 1 73.95241620572855 61.96570755233921 16.8223373834739 0 0 0
390 1 77.97980606776379 61.9598096059437 16.86351237277106 0 0 0
428 1 69.97782545890995 65.97005030315125 16.78202984061077 0 0 0
431 1 71.96666531142084 63.96645792850985 16.79037500936631 0 0 0
432 1 73.97459373763536 65.95078676024771 16.82866986320162 0 0 0
435 1 75.9905156779796 63.98714990640053 16.82340581157737 0 0 0
436 1 77.96882873700187 65.96059798270345 16.894114108379288 0 0 0
476 1 71.94628518538401 67.95525244149273 16.823181452958877 0 0 0
480 1 75.99509346457934 67.96593478180942 16.84502994383418 0 0 0
439 1 79.97356633998379 63.96244428925027 16.954513069873308 0 0 0
484 1 79.98355610572585 67.92283248177516 16.98933184605946 0 0 0
445 1 41.96286035074794 69.9298472632598 16.94357623566336 0 0 0
114 2 47.955298346957896 69.96463637282064 14.801405916658185 0 0 0
116 2 51.95746661800076 69.98788499763381 14.71422572398623 0 0 0
129 2 49.975364452243085 71.98469716643258 14.80140184293496 0 0 0
130 2 51.995694529994125 73.98006459283438 14.8380030117467 0 0 0
449 1 45.94910353833495 69.99147553182473 16.826598929719772 0 0 0
453 1 49.98542538954029 69.95457999580941 16.809368484492477 0 0 0
490 1 43.981138409144286 71.93722086952904 16.926663875658083 0 0 0
491 1 45.991604123760105 73.948399324828 16.92364058923835 0 0 0
494 1 47.95167240819145 71.98832636777543 16.817747610643153 0 0 0
495 1 49.94852554352909 73.99090017328669 16.82660400924812 0 0 0
498 1 51.98472639488392 71.94629329548104 16.823179424118834 0 0 0
530 1 48.00278652764019 75.95886329955253 16.926675525569745 0 0 0
531 1 50.01015483201785 77.97713495249198 16.943571956948812 0 0 0
534 1 51.97406052186846 75.99509538644911 16.845029884255386 0 0 0
118 2 55.96991029762751 69.98412455659565 14.68864868758121 0 0 0
121 2 59.96999577031664 70.00973634142791 14.699576835551785 0 0 0
131 2 53.96555695756726 71.98302442589812 14.740485373503473 0 0 0
132 2 55.953900966042255 74.01535009452088 14.774475164433182 0 0 0
133 2 57.95508145804738 72.00876077188197 14.71106119404617 0 0 0
134 2 59.9700001303263 73.98636755125632 14.754296866999606 0 0 0
140 2 58.00882115816169 75.98771435493663 14.837647381865443 0 0 0
457 1 53.969936903017626 69.97781743414193 16.782024087703952 0 0 0
461 1 57.97075365369179 69.98944178177729 16.767603888171532 0 0 0
499 1 53.98922103236977 73.97459019080846 16.828660468944857 0 0 0
502 1 55.97353465761829 71.96666648707703 16.790378282281694 0 0 0
503 1 57.97429146028301 73.95242738731149 16.82232459625274 0 0 0
506 1 59.97000123139155 71.98174331816794 16.78828213185759 0 0 0
535 1 53.97939947656787 77.96883215448531 16.89411685532686 0 0 0
538 1 55.95285587010202 75.9905154065346 16.823413344545543 0 0 0
539 1 57.980199035367 77.97980613804755 16.86351533919771 0 0 0
542 1 59.97000110669659 75.96992858569676 16.857179997089464 0 0 0
123 2 63.97009624795658 69.98412180764919 14.688650742179357 0 0 0
125 2 67.98252975714239 69.98788578747794 14.714224473738115 0 0 0
135 2 61.98492120783785 72.00876402737046 14.71106519691598 0 0 0
136 2 63.98609336743455 74.01535560681685 14.774473278238679 0 0 0
137 2 65.97444729735403 71.98302588493462 14.740490252812242 0 0 0
138 2 67.94430237027416 73.98006416415194 14.837995089612043 0 0 0
141 2 61.931176451868325 75.98770711109896 14.837650778737206 0 0 0
465 1 61.96924369772862 69.98945188053088 16.76760175970214 0 0 0
469 1 65.97005939788826 69.9778233198693 16.782025567763604 0 0 0
507 1 61.96570588360373 73.95242741036353 16.822332040978843 0 0 0
510 1 63.96646881711355 71.96666800333689 16.790369587458045 0 0 0
511 1 65.95078163456219 73.97458737074861 16.828661878064267 0 0 0
514 1 67.95526718566616 71.94628111441641 16.823180422052918 0 0 0
543 1 61.959806922430914 77.97981003662471 16.863505836384313 0 0 0
546 1 63.98714770315078 75.99051471512244 16.823415754948364 0 0 0
547 1 65.96059795031135 77.96882907223468 16.89411963258671 0 0 0
550 1 67.96593441320745 75.99509930681327 16.845032358944007 0 0 0
127 2 71.98469870412886 69.96463994579338 14.801406659395813 0 0 0
139 2 69.96463467500037 71.9846969907646 14.801400220228855 0 0 0
473 1 69.95457822879682 69.95457661891817 16.809364697621024 0 0 0
477 1 73.99089385660723 69.9914802890769 16.826602883395893 0 0 0
481 1 77.97713680945704 69.92984306245961 16.943566808220798 0 0 0
515 1 69.99148125469515 73.99089859143311 16.826613469411363 0 0 0
518 1 71.98832939306683 71.9883186538758 16.817745426894874 0 0 0
519 1 73.94840036973343 73.94839584612899 16.923629432218377 0 0 0
522 1 75.95885686068436 71.93721519625707 16.926668432875896 0 0 0
551 1 69.92984093095623 77.97714541007211 16.943572425741472 0 0 0
554 1 71.93721495112803 75.95885775685164 16.926659508953232 0 0 0
562 1 52.017163794953035 79.98355205228242 16.98931879028627 0 0 0
565 1 55.97755039484034 79.97356821830768 16.954520648084713 0 0 0
568 1 59.9699981734274 79.9612488680717 16.943751602573233 0 0 0
571 1 63.96244835736795 79.97356172333402 16.954515193883577 0 0 0
574 1 67.92283978090595 79.98355260259814 16.989317200985624 0 0 0
1319 1 58.02266881605483 26.040985642169076 25.33742722562357 0 0 0
1322 1 61.917337291235235 26.040982906176193 25.33742229747203 0 0 0
1363 1 38.046084099873575 34.02036626269679 25.325675270065386 0 0 0
1366 1 41.98157665957602 33.9812449634783 25.175904615555694 0 0 0
583 2 52.04055034558539 29.993757874501483 23.164338483467976 0 0 0
588 2 44.03020894470578 33.978771400094814 23.13242119810881 0 0 0
589 2 46.05354230738148 31.99842583155123 23.177495952983843 0 0 0
590 1 50.021350943452624 33.9968124563828 21.121373318925222 0 0 0
591 2 47.989259148888415 33.99081191388775 23.093195986739243 0 0 0
592 2 49.96674349375237 31.956785924362144 23.10128634978254 0 0 0
593 1 52.04847233604294 32.00701073143464 21.1738877733205 0 0 0
595 2 51.99043999421418 33.99354949340872 23.122019359846036 0 0 0
1330 1 46.042114215648475 30.01154894798053 25.252886143656372 0 0 0
1333 1 48.06616450973325 28.041808417920908 25.325390970324133 0 0 0
1334 1 49.99291990739905 30.004394778780608 25.195399919224666 0 0 0
1337 1 51.99112183495127 28.01322942723588 25.26311308561671 0 0 0
1369 1 44.00866747280387 31.995266636006995 25.20988749297535 0 0 0
1370 1 46.00267153678128 34.002117193197286 25.194875677231394 0 0 0
1373 1 48.01311626886934 31.9824572946621 25.20199636980163 0 0 0
1374 1 49.98478051828117 33.982601905230574 25.155226595843974 0 0 0
1377 1 51.982396139368 32.00675953595221 25.1773460263987 0 0 0
584 2 55.97706599983109 29.977384334748255 23.13511047359881 0 0 0
585 2 59.97000233092541 29.97212706967194 23.12914191898745 0 0 0
594 1 53.99510606653285 33.98504930899532 21.063560791811636 0 0 0
596 2 54.00643469941546 32.00206141502962 23.143493036626097 0 0 0
597 1 55.97691224343005 32.01286330738961 21.14608987603439 0 0 0
598 1 57.9762322448894 33.98403825004852 21.051680355450603 0 0 0
599 2 55.98808495939772 34.00310724638396 23.11391306403847 0 0 0
600 2 57.97561764424105 31.987552427058713 23.117874629759022 0 0 0
601 1 59.96999701278385 32.01048039466092 21.141447979150573 0 0 0
603 2 59.970005620606486 33.99736705271766 23.107952552724495 0 0 0
1338 1 53.99433932656034 30.00169242403503 25.203077110948406 0 0 0
1341 1 55.96926080042046 27.999105995916384 25.23916441885791 0 0 0
1342 1 57.96941709100396 29.980147888797134 25.180667388580023 0 0 0
1345 1 59.969996808516925 28.014875934535517 25.234138925559026 0 0 0
1378 1 53.98747024051045 33.996612466050955 25.16874763707535 0 0 0
1381 1 55.990049411439806 31.997880541545765 25.185474655327038 0 0 0
1382 1 57.978598478669454 33.98963471196518 25.165709471955783 0 0 0
1385 1 59.96999805913218 31.994148663682157 25.175844090777975 0 0 0
586 2 63.962938836738516 29.977383635131403 23.13510989613829 0 0 0
587 2 67.89944961963633 29.993758944648835 23.164338184695158 0 0 0
602 1 61.963760834634456 33.984046833950224 21.05168022181978 0 0 0
604 2 61.96438631718733 31.98754822826497 23.11787987139695 0 0 0
605 1 63.96308641164566 32.01286496265374 21.14608974078761 0 0 0
606 1 65.94488895783648 33.985057023479925 21.063553022148877 0 0 0
607 2 63.951913071469924 34.00311294373402 23.113912953382485 0 0 0
608 2 65.93357137210162 32.00205178751815 23.14348828513919 0 0 0
609 1 67.8915266892741 32.00701065902507 21.173890171424418 0 0 0
611 2 67.94957447053807 33.99354460534126 23.12200986765331 0 0 0
1346 1 61.97058210306056 29.98014810042972 25.180669994460754 0 0 0
1349 1 63.97074112984786 27.999109709024882 25.239159243297337 0 0 0
1350 1 65.94566060730436 30.001694549789367 25.20307557803688 0 0 0
1353 1 67.94887888397828 28.013232140141287 25.26311113850872 0 0 0
1386 1 61.96140338409383 33.9896412977264 25.16571549196656 0 0 0
1389 1 63.94994367067249 31.99787752051777 25.185475447733495 0 0 0
1390 1 65.95252106445949 33.99661659042428 25.16875221306921 0 0 0
1393 1 67.95760002724957 32.00675859236129 25.17734581732557 0 0 0
610 1 69.91864613095768 33.996813610362125 21.121380949323573 0 0 0
612 2 69.97325731330812 31.956794101332036 23.10128658569557 0 0 0
613 2 71.95074140662511 33.99081700970109 23.09319738900975 0 0 0
614 2 73.88646419396441 31.998424066986573 23.177490223308148 0 0 0
615 2 75.90978985631199 33.978774068684196 23.132425883331592 0 0 0
1354 1 69.9470806895723 30.004396879010734 25.195402615104285 0 0 0
1357 1 71.87383292197458 28.041810031148202 25.325393956145643 0 0 0
1358 1 73.89789857269581 30.011542143440263 25.252878805554456 0 0 0
1394 1 69.95522278452398 33.98259302330967 25.155221257809686 0 0 0
1397 1 71.92687032315747 31.982458442648944 25.202000901399376 0 0 0
1398 1 73.93732802523438 34.00212027493427 25.194884987850383 0 0 0
1401 1 75.93133313926883 31.995264081662047 25.209888929732674 0 0 0
1402 1 77.9584216979469 33.98124582326605 25.17590191397608 0 0 0
1405 1 81.8939140962366 34.02037399717414 25.32567786343301 0 0 0
1409 1 34.020372181532196 38.04608486539202 25.32567777460554 0 0 0
1466 1 33.981246385570245 41.98158062619687 25.175904235008186 0 0 0
616 1 42.035428318848616 38.00048629855434 21.1229284710454 0 0 0
617 2 39.98558796130616 37.97760907518523 23.096130260924603 0 0 0
618 2 41.99790148366018 35.976842471191176 23.110390268815465 0 0 0
656 1 38.00048626163544 42.03542896324162 21.122927137570638 0 0 0
657 2 35.97683941747508 41.99788944588514 23.110394055272746 0 0 0
658 2 37.977611656366356 39.98558946835181 23.09613038976014 0 0 0
659 1 40.015988256209226 40.01599057178696 21.116362735457898 0 0 0
660 1 41.966373031040895 41.966373523100906 20.998176091295125 0 0 0
661 2 39.99226397854841 41.996773020619926 23.100308438482504 0 0 0
662 2 41.99677875348465 39.992265432914685 23.1003139477517 0 0 0
1412 1 36.02745781632903 36.02745980877403 25.30526806205588 0 0 0
1413 1 37.975887426939416 37.975888746476784 25.168408040630027 0 0 0
1416 1 39.983906345046975 35.992967155065706 25.177387394309523 0 0 0
1417 1 41.99241123144822 37.98940145728313 25.149577435815424 0 0 0
1469 1 35.992967619698696 39.983907197147175 25.177385768368293 0 0 0
1470 1 37.98939636720199 41.99240918540374 25.149582927973743 0 0 0
1473 1 39.988844348665175 39.988847892424445 25.144446412242694 0 0 0
1474 1 41.99443858345245 41.994435753331885 25.149066537963918 0 0 0
142 2 48.02750894356519 37.97511962875354 19.008046051597187 0 0 0
143 2 51.97078880181818 37.93092168786062 18.943085532821154 0 0 0
153 2 43.98518058436459 41.97237329350277 18.960752634024477 0 0 0
154 2 46.001850533212014 39.96038709607063 18.96640295481481 0 0 0
156 2 47.96777519817072 41.95391931912407 18.892886346578653 0 0 0
157 2 49.97689432676475 39.96634484239028 18.92682527813465 0 0 0
160 2 51.99388570377233 41.97885196969992 18.927479381854397 0 0 0
619 1 44.05326769452118 36.00012794923117 21.15433324218416 0 0 0
620 1 45.973920937917114 37.98294137949228 21.02535816298495 0 0 0
621 2 44.00211463537927 37.99373636846959 23.115403768166974 0 0 0
622 2 46.010122396340996 35.98231953198828 23.114698457685325 0 0 0
623 1 47.97132864176948 35.98083098342376 21.058992178284015 0 0 0
624 1 50.00373733907872 37.959961781460585 21.012000916219087 0 0 0
625 2 47.98940103951791 37.9892766708374 23.0643573037282 0 0 0
626 2 49.98819028817592 35.99311762840115 23.097953606523916 0 0 0
627 1 51.96769895374959 35.952831711052575 21.01607892432687 0 0 0
629 2 51.988919972313326 37.98230487078542 23.06778959784614 0 0 0
663 1 43.974078275761926 39.960255394448396 21.002557772988773 0 0 0
664 1 45.99376557623706 41.98556950224324 20.99218334805958 0 0 0
665 2 43.9824353619016 41.98259721057171 23.04727270518057 0 0 0
666 2 45.98400811675006 39.98717653274134 23.06052015581226 0 0 0
667 1 47.995420488624156 39.995909303835504 21.012150215883953 0 0 0
668 1 49.97257805621733 41.97270527954032 20.95946933350844 0 0 0
669 2 47.98853672203066 41.99105382011081 23.06694274882739 0 0 0
670 2 49.99101318331744 39.98500006646888 23.064996238594862 0 0 0
671 1 51.97694223126256 39.97257267798461 20.97263358524588 0 0 0
673 2 51.97859246819567 41.985625198695175 23.05140915098351 0 0 0
1420 1 43.992612687652205 35.98777157187771 25.16281578914485 0 0 0
1421 1 45.99967553520692 37.98664750754346 25.15240359611298 0 0 0